+ 1.2 1 2 tcp 40 ------- 1 1.0 3.0 0 0
- 1.2 1 2 tcp 40 ------- 1 1.0 3.0 0 0
r 1.202064 1 2 tcp 40 ------- 1 1.0 3.0 0 0
+ 1.202064 2 3 tcp 40 ------- 1 1.0 3.0 0 0
- 1.202064 2 3 tcp 40 ------- 1 1.0 3.0 0 0
r 1.212277 2 3 tcp 40 ------- 1 1.0 3.0 0 0
+ 1.212277 3 2 ack 40 ------- 1 3.0 1.0 0 1
- 1.212277 3 2 ack 40 ------- 1 3.0 1.0 0 1
r 1.222491 3 2 ack 40 ------- 1 3.0 1.0 0 1
+ 1.222491 2 1 ack 40 ------- 1 3.0 1.0 0 1
- 1.222491 2 1 ack 40 ------- 1 3.0 1.0 0 1
r 1.224555 2 1 ack 40 ------- 1 3.0 1.0 0 1
+ 1.224555 1 2 tcp 1040 ------- 1 1.0 3.0 1 2
- 1.224555 1 2 tcp 1040 ------- 1 1.0 3.0 1 2
+ 1.224555 1 2 tcp 1040 ------- 1 1.0 3.0 2 3
- 1.226219 1 2 tcp 1040 ------- 1 1.0 3.0 2 3
r 1.228219 1 2 tcp 1040 ------- 1 1.0 3.0 1 2
+ 1.228219 2 3 tcp 1040 ------- 1 1.0 3.0 1 2
- 1.228219 2 3 tcp 1040 ------- 1 1.0 3.0 1 2
r 1.229883 1 2 tcp 1040 ------- 1 1.0 3.0 2 3
+ 1.229883 2 3 tcp 1040 ------- 1 1.0 3.0 2 3
- 1.233765 2 3 tcp 1040 ------- 1 1.0 3.0 2 3
r 1.243765 2 3 tcp 1040 ------- 1 1.0 3.0 1 2
+ 1.243765 3 2 ack 40 ------- 1 3.0 1.0 1 4
- 1.243765 3 2 ack 40 ------- 1 3.0 1.0 1 4
r 1.249312 2 3 tcp 1040 ------- 1 1.0 3.0 2 3
+ 1.249312 3 2 ack 40 ------- 1 3.0 1.0 2 5
- 1.249312 3 2 ack 40 ------- 1 3.0 1.0 2 5
r 1.253979 3 2 ack 40 ------- 1 3.0 1.0 1 4
+ 1.253979 2 1 ack 40 ------- 1 3.0 1.0 1 4
- 1.253979 2 1 ack 40 ------- 1 3.0 1.0 1 4
r 1.256043 2 1 ack 40 ------- 1 3.0 1.0 1 4
+ 1.256043 1 2 tcp 1040 ------- 1 1.0 3.0 3 6
- 1.256043 1 2 tcp 1040 ------- 1 1.0 3.0 3 6
+ 1.256043 1 2 tcp 1040 ------- 1 1.0 3.0 4 7
- 1.257707 1 2 tcp 1040 ------- 1 1.0 3.0 4 7
r 1.259525 3 2 ack 40 ------- 1 3.0 1.0 2 5
+ 1.259525 2 1 ack 40 ------- 1 3.0 1.0 2 5
- 1.259525 2 1 ack 40 ------- 1 3.0 1.0 2 5
r 1.259707 1 2 tcp 1040 ------- 1 1.0 3.0 3 6
+ 1.259707 2 3 tcp 1040 ------- 1 1.0 3.0 3 6
- 1.259707 2 3 tcp 1040 ------- 1 1.0 3.0 3 6
r 1.261371 1 2 tcp 1040 ------- 1 1.0 3.0 4 7
+ 1.261371 2 3 tcp 1040 ------- 1 1.0 3.0 4 7
r 1.261589 2 1 ack 40 ------- 1 3.0 1.0 2 5
+ 1.261589 1 2 tcp 1040 ------- 1 1.0 3.0 5 8
- 1.261589 1 2 tcp 1040 ------- 1 1.0 3.0 5 8
+ 1.261589 1 2 tcp 1040 ------- 1 1.0 3.0 6 9
- 1.263253 1 2 tcp 1040 ------- 1 1.0 3.0 6 9
- 1.265253 2 3 tcp 1040 ------- 1 1.0 3.0 4 7
r 1.265253 1 2 tcp 1040 ------- 1 1.0 3.0 5 8
+ 1.265253 2 3 tcp 1040 ------- 1 1.0 3.0 5 8
r 1.266917 1 2 tcp 1040 ------- 1 1.0 3.0 6 9
+ 1.266917 2 3 tcp 1040 ------- 1 1.0 3.0 6 9
- 1.2708 2 3 tcp 1040 ------- 1 1.0 3.0 5 8
r 1.275253 2 3 tcp 1040 ------- 1 1.0 3.0 3 6
+ 1.275253 3 2 ack 40 ------- 1 3.0 1.0 3 10
- 1.275253 3 2 ack 40 ------- 1 3.0 1.0 3 10
- 1.276347 2 3 tcp 1040 ------- 1 1.0 3.0 6 9
r 1.2808 2 3 tcp 1040 ------- 1 1.0 3.0 4 7
+ 1.2808 3 2 ack 40 ------- 1 3.0 1.0 4 11
- 1.2808 3 2 ack 40 ------- 1 3.0 1.0 4 11
r 1.285467 3 2 ack 40 ------- 1 3.0 1.0 3 10
+ 1.285467 2 1 ack 40 ------- 1 3.0 1.0 3 10
- 1.285467 2 1 ack 40 ------- 1 3.0 1.0 3 10
r 1.286347 2 3 tcp 1040 ------- 1 1.0 3.0 5 8
+ 1.286347 3 2 ack 40 ------- 1 3.0 1.0 5 12
- 1.286347 3 2 ack 40 ------- 1 3.0 1.0 5 12
r 1.287531 2 1 ack 40 ------- 1 3.0 1.0 3 10
+ 1.287531 1 2 tcp 1040 ------- 1 1.0 3.0 7 13
- 1.287531 1 2 tcp 1040 ------- 1 1.0 3.0 7 13
+ 1.287531 1 2 tcp 1040 ------- 1 1.0 3.0 8 14
- 1.289195 1 2 tcp 1040 ------- 1 1.0 3.0 8 14
r 1.291013 3 2 ack 40 ------- 1 3.0 1.0 4 11
+ 1.291013 2 1 ack 40 ------- 1 3.0 1.0 4 11
- 1.291013 2 1 ack 40 ------- 1 3.0 1.0 4 11
r 1.291195 1 2 tcp 1040 ------- 1 1.0 3.0 7 13
+ 1.291195 2 3 tcp 1040 ------- 1 1.0 3.0 7 13
- 1.291195 2 3 tcp 1040 ------- 1 1.0 3.0 7 13
r 1.291893 2 3 tcp 1040 ------- 1 1.0 3.0 6 9
+ 1.291893 3 2 ack 40 ------- 1 3.0 1.0 6 15
- 1.291893 3 2 ack 40 ------- 1 3.0 1.0 6 15
r 1.292859 1 2 tcp 1040 ------- 1 1.0 3.0 8 14
+ 1.292859 2 3 tcp 1040 ------- 1 1.0 3.0 8 14
r 1.293077 2 1 ack 40 ------- 1 3.0 1.0 4 11
+ 1.293077 1 2 tcp 1040 ------- 1 1.0 3.0 9 16
- 1.293077 1 2 tcp 1040 ------- 1 1.0 3.0 9 16
+ 1.293077 1 2 tcp 1040 ------- 1 1.0 3.0 10 17
- 1.294741 1 2 tcp 1040 ------- 1 1.0 3.0 10 17
r 1.29656 3 2 ack 40 ------- 1 3.0 1.0 5 12
+ 1.29656 2 1 ack 40 ------- 1 3.0 1.0 5 12
- 1.29656 2 1 ack 40 ------- 1 3.0 1.0 5 12
- 1.296741 2 3 tcp 1040 ------- 1 1.0 3.0 8 14
r 1.296741 1 2 tcp 1040 ------- 1 1.0 3.0 9 16
+ 1.296741 2 3 tcp 1040 ------- 1 1.0 3.0 9 16
r 1.298405 1 2 tcp 1040 ------- 1 1.0 3.0 10 17
+ 1.298405 2 3 tcp 1040 ------- 1 1.0 3.0 10 17
r 1.298624 2 1 ack 40 ------- 1 3.0 1.0 5 12
+ 1.298624 1 2 tcp 1040 ------- 1 1.0 3.0 11 18
- 1.298624 1 2 tcp 1040 ------- 1 1.0 3.0 11 18
+ 1.298624 1 2 tcp 1040 ------- 1 1.0 3.0 12 19
- 1.300288 1 2 tcp 1040 ------- 1 1.0 3.0 12 19
r 1.302107 3 2 ack 40 ------- 1 3.0 1.0 6 15
+ 1.302107 2 1 ack 40 ------- 1 3.0 1.0 6 15
- 1.302107 2 1 ack 40 ------- 1 3.0 1.0 6 15
- 1.302288 2 3 tcp 1040 ------- 1 1.0 3.0 9 16
r 1.302288 1 2 tcp 1040 ------- 1 1.0 3.0 11 18
+ 1.302288 2 3 tcp 1040 ------- 1 1.0 3.0 11 18
r 1.303952 1 2 tcp 1040 ------- 1 1.0 3.0 12 19
+ 1.303952 2 3 tcp 1040 ------- 1 1.0 3.0 12 19
r 1.304171 2 1 ack 40 ------- 1 3.0 1.0 6 15
+ 1.304171 1 2 tcp 1040 ------- 1 1.0 3.0 13 20
- 1.304171 1 2 tcp 1040 ------- 1 1.0 3.0 13 20
+ 1.304171 1 2 tcp 1040 ------- 1 1.0 3.0 14 21
- 1.305835 1 2 tcp 1040 ------- 1 1.0 3.0 14 21
r 1.306741 2 3 tcp 1040 ------- 1 1.0 3.0 7 13
+ 1.306741 3 2 ack 40 ------- 1 3.0 1.0 7 22
- 1.306741 3 2 ack 40 ------- 1 3.0 1.0 7 22
- 1.307835 2 3 tcp 1040 ------- 1 1.0 3.0 10 17
r 1.307835 1 2 tcp 1040 ------- 1 1.0 3.0 13 20
+ 1.307835 2 3 tcp 1040 ------- 1 1.0 3.0 13 20
r 1.309499 1 2 tcp 1040 ------- 1 1.0 3.0 14 21
+ 1.309499 2 3 tcp 1040 ------- 1 1.0 3.0 14 21
r 1.312288 2 3 tcp 1040 ------- 1 1.0 3.0 8 14
+ 1.312288 3 2 ack 40 ------- 1 3.0 1.0 8 23
- 1.312288 3 2 ack 40 ------- 1 3.0 1.0 8 23
- 1.313381 2 3 tcp 1040 ------- 1 1.0 3.0 11 18
r 1.316955 3 2 ack 40 ------- 1 3.0 1.0 7 22
+ 1.316955 2 1 ack 40 ------- 1 3.0 1.0 7 22
- 1.316955 2 1 ack 40 ------- 1 3.0 1.0 7 22
r 1.317835 2 3 tcp 1040 ------- 1 1.0 3.0 9 16
+ 1.317835 3 2 ack 40 ------- 1 3.0 1.0 9 24
- 1.317835 3 2 ack 40 ------- 1 3.0 1.0 9 24
- 1.318928 2 3 tcp 1040 ------- 1 1.0 3.0 12 19
r 1.319019 2 1 ack 40 ------- 1 3.0 1.0 7 22
+ 1.319019 1 2 tcp 1040 ------- 1 1.0 3.0 15 25
- 1.319019 1 2 tcp 1040 ------- 1 1.0 3.0 15 25
+ 1.319019 1 2 tcp 1040 ------- 1 1.0 3.0 16 26
- 1.320683 1 2 tcp 1040 ------- 1 1.0 3.0 16 26
r 1.322501 3 2 ack 40 ------- 1 3.0 1.0 8 23
+ 1.322501 2 1 ack 40 ------- 1 3.0 1.0 8 23
- 1.322501 2 1 ack 40 ------- 1 3.0 1.0 8 23
r 1.322683 1 2 tcp 1040 ------- 1 1.0 3.0 15 25
+ 1.322683 2 3 tcp 1040 ------- 1 1.0 3.0 15 25
r 1.323381 2 3 tcp 1040 ------- 1 1.0 3.0 10 17
+ 1.323381 3 2 ack 40 ------- 1 3.0 1.0 10 27
- 1.323381 3 2 ack 40 ------- 1 3.0 1.0 10 27
r 1.324347 1 2 tcp 1040 ------- 1 1.0 3.0 16 26
+ 1.324347 2 3 tcp 1040 ------- 1 1.0 3.0 16 26
- 1.324475 2 3 tcp 1040 ------- 1 1.0 3.0 13 20
r 1.324565 2 1 ack 40 ------- 1 3.0 1.0 8 23
+ 1.324565 1 2 tcp 1040 ------- 1 1.0 3.0 17 28
- 1.324565 1 2 tcp 1040 ------- 1 1.0 3.0 17 28
+ 1.324565 1 2 tcp 1040 ------- 1 1.0 3.0 18 29
- 1.326229 1 2 tcp 1040 ------- 1 1.0 3.0 18 29
r 1.328048 3 2 ack 40 ------- 1 3.0 1.0 9 24
+ 1.328048 2 1 ack 40 ------- 1 3.0 1.0 9 24
- 1.328048 2 1 ack 40 ------- 1 3.0 1.0 9 24
r 1.328229 1 2 tcp 1040 ------- 1 1.0 3.0 17 28
+ 1.328229 2 3 tcp 1040 ------- 1 1.0 3.0 17 28
r 1.328928 2 3 tcp 1040 ------- 1 1.0 3.0 11 18
+ 1.328928 3 2 ack 40 ------- 1 3.0 1.0 11 30
- 1.328928 3 2 ack 40 ------- 1 3.0 1.0 11 30
r 1.329893 1 2 tcp 1040 ------- 1 1.0 3.0 18 29
+ 1.329893 2 3 tcp 1040 ------- 1 1.0 3.0 18 29
- 1.330021 2 3 tcp 1040 ------- 1 1.0 3.0 14 21
r 1.330112 2 1 ack 40 ------- 1 3.0 1.0 9 24
+ 1.330112 1 2 tcp 1040 ------- 1 1.0 3.0 19 31
- 1.330112 1 2 tcp 1040 ------- 1 1.0 3.0 19 31
+ 1.330112 1 2 tcp 1040 ------- 1 1.0 3.0 20 32
- 1.331776 1 2 tcp 1040 ------- 1 1.0 3.0 20 32
r 1.333595 3 2 ack 40 ------- 1 3.0 1.0 10 27
+ 1.333595 2 1 ack 40 ------- 1 3.0 1.0 10 27
- 1.333595 2 1 ack 40 ------- 1 3.0 1.0 10 27
r 1.333776 1 2 tcp 1040 ------- 1 1.0 3.0 19 31
+ 1.333776 2 3 tcp 1040 ------- 1 1.0 3.0 19 31
r 1.334475 2 3 tcp 1040 ------- 1 1.0 3.0 12 19
+ 1.334475 3 2 ack 40 ------- 1 3.0 1.0 12 33
- 1.334475 3 2 ack 40 ------- 1 3.0 1.0 12 33
r 1.33544 1 2 tcp 1040 ------- 1 1.0 3.0 20 32
+ 1.33544 2 3 tcp 1040 ------- 1 1.0 3.0 20 32
- 1.335568 2 3 tcp 1040 ------- 1 1.0 3.0 15 25
r 1.335659 2 1 ack 40 ------- 1 3.0 1.0 10 27
+ 1.335659 1 2 tcp 1040 ------- 1 1.0 3.0 21 34
- 1.335659 1 2 tcp 1040 ------- 1 1.0 3.0 21 34
+ 1.335659 1 2 tcp 1040 ------- 1 1.0 3.0 22 35
- 1.337323 1 2 tcp 1040 ------- 1 1.0 3.0 22 35
r 1.339141 3 2 ack 40 ------- 1 3.0 1.0 11 30
+ 1.339141 2 1 ack 40 ------- 1 3.0 1.0 11 30
- 1.339141 2 1 ack 40 ------- 1 3.0 1.0 11 30
r 1.339323 1 2 tcp 1040 ------- 1 1.0 3.0 21 34
+ 1.339323 2 3 tcp 1040 ------- 1 1.0 3.0 21 34
r 1.340021 2 3 tcp 1040 ------- 1 1.0 3.0 13 20
+ 1.340021 3 2 ack 40 ------- 1 3.0 1.0 13 36
- 1.340021 3 2 ack 40 ------- 1 3.0 1.0 13 36
r 1.340987 1 2 tcp 1040 ------- 1 1.0 3.0 22 35
+ 1.340987 2 3 tcp 1040 ------- 1 1.0 3.0 22 35
- 1.341115 2 3 tcp 1040 ------- 1 1.0 3.0 16 26
r 1.341205 2 1 ack 40 ------- 1 3.0 1.0 11 30
+ 1.341205 1 2 tcp 1040 ------- 1 1.0 3.0 23 37
- 1.341205 1 2 tcp 1040 ------- 1 1.0 3.0 23 37
+ 1.341205 1 2 tcp 1040 ------- 1 1.0 3.0 24 38
- 1.342869 1 2 tcp 1040 ------- 1 1.0 3.0 24 38
r 1.344688 3 2 ack 40 ------- 1 3.0 1.0 12 33
+ 1.344688 2 1 ack 40 ------- 1 3.0 1.0 12 33
- 1.344688 2 1 ack 40 ------- 1 3.0 1.0 12 33
r 1.344869 1 2 tcp 1040 ------- 1 1.0 3.0 23 37
+ 1.344869 2 3 tcp 1040 ------- 1 1.0 3.0 23 37
r 1.345568 2 3 tcp 1040 ------- 1 1.0 3.0 14 21
+ 1.345568 3 2 ack 40 ------- 1 3.0 1.0 14 39
- 1.345568 3 2 ack 40 ------- 1 3.0 1.0 14 39
r 1.346533 1 2 tcp 1040 ------- 1 1.0 3.0 24 38
+ 1.346533 2 3 tcp 1040 ------- 1 1.0 3.0 24 38
- 1.346661 2 3 tcp 1040 ------- 1 1.0 3.0 17 28
r 1.346752 2 1 ack 40 ------- 1 3.0 1.0 12 33
+ 1.346752 1 2 tcp 1040 ------- 1 1.0 3.0 25 40
- 1.346752 1 2 tcp 1040 ------- 1 1.0 3.0 25 40
+ 1.346752 1 2 tcp 1040 ------- 1 1.0 3.0 26 41
- 1.348416 1 2 tcp 1040 ------- 1 1.0 3.0 26 41
r 1.350235 3 2 ack 40 ------- 1 3.0 1.0 13 36
+ 1.350235 2 1 ack 40 ------- 1 3.0 1.0 13 36
- 1.350235 2 1 ack 40 ------- 1 3.0 1.0 13 36
r 1.350416 1 2 tcp 1040 ------- 1 1.0 3.0 25 40
+ 1.350416 2 3 tcp 1040 ------- 1 1.0 3.0 25 40
r 1.351115 2 3 tcp 1040 ------- 1 1.0 3.0 15 25
r 1.35208 1 2 tcp 1040 ------- 1 1.0 3.0 26 41
+ 1.35208 2 3 tcp 1040 ------- 1 1.0 3.0 26 41
- 1.352208 2 3 tcp 1040 ------- 1 1.0 3.0 18 29
r 1.352299 2 1 ack 40 ------- 1 3.0 1.0 13 36
r 1.355781 3 2 ack 40 ------- 1 3.0 1.0 14 39
+ 1.355781 2 1 ack 40 ------- 1 3.0 1.0 14 39
- 1.355781 2 1 ack 40 ------- 1 3.0 1.0 14 39
r 1.356661 2 3 tcp 1040 ------- 1 1.0 3.0 16 26
- 1.357755 2 3 tcp 1040 ------- 1 1.0 3.0 19 31
r 1.357845 2 1 ack 40 ------- 1 3.0 1.0 14 39
r 1.362208 2 3 tcp 1040 ------- 1 1.0 3.0 17 28
- 1.363301 2 3 tcp 1040 ------- 1 1.0 3.0 20 32
r 1.367755 2 3 tcp 1040 ------- 1 1.0 3.0 18 29
- 1.368848 2 3 tcp 1040 ------- 1 1.0 3.0 21 34
r 1.373301 2 3 tcp 1040 ------- 1 1.0 3.0 19 31
- 1.374395 2 3 tcp 1040 ------- 1 1.0 3.0 22 35
r 1.378848 2 3 tcp 1040 ------- 1 1.0 3.0 20 32
- 1.379941 2 3 tcp 1040 ------- 1 1.0 3.0 23 37
r 1.384395 2 3 tcp 1040 ------- 1 1.0 3.0 21 34
- 1.385488 2 3 tcp 1040 ------- 1 1.0 3.0 24 38
r 1.389941 2 3 tcp 1040 ------- 1 1.0 3.0 22 35
- 1.391035 2 3 tcp 1040 ------- 1 1.0 3.0 25 40
r 1.395488 2 3 tcp 1040 ------- 1 1.0 3.0 23 37
- 1.396581 2 3 tcp 1040 ------- 1 1.0 3.0 26 41
r 1.401035 2 3 tcp 1040 ------- 1 1.0 3.0 24 38
r 1.406581 2 3 tcp 1040 ------- 1 1.0 3.0 25 40
r 1.412128 2 3 tcp 1040 ------- 1 1.0 3.0 26 41
